# (S)-TrFE nomomer unit in PCFF, backward direction
# author: Vadim Sultanov

       6 atoms
       6 bonds

       3 atom types
       1 bond types

      0.0000   10.000000  xlo xhi
      0.0000   10.000000  ylo yhi
      0.0000    2.546816  zlo zhi

Masses

       1    12.01115    # C  c
       2     1.00797    # H  h
       3    18.99840    # F  f

Atoms

       1       1       1    0.0000    0.000000     0.424067    0.000000    # X trfe-S-bac bb
       2       1       3    0.0000    1.132343     1.230231    0.000000    # X trfe-S-bac
       3       1       3    0.0000   -1.132343     1.230231    0.000000    # X trfe-S-bac
       4       1       1    0.0000    0.000000    -0.424067    1.273408    # X trfe-S-bac bb
       5       1       3    0.0000    1.132343    -1.230231    1.273408    # X trfe-S-bac
       6       1       2    0.0000   -0.888804    -1.073859    1.273408    # X trfe-S-bac

Bonds

       1       1       1       2    # 1
       2       1       1       3    # 1
       3       1       1       4    # 1
       4       1       4       5    # 1
       5       1       4       6    # 1
       6       1       4       7    # 1

